<?xml version="1.0" encoding="UTF-8"?>

<!-- generated on 2023-05-31 10:03:40 by Eclipse SUMO sumo Version 1.16.0
<configuration xmlns:xsi="http://www.w3.org/2001/XMLSchema-instance" xsi:noNamespaceSchemaLocation="http://sumo.dlr.de/xsd/sumoConfiguration.xsd">

    <input>
        <net-file value="C:\Users\aaron\Sumo\2023-05-31-10-01-46\osm.net.xml.gz"/>
        <route-files value="C:\Users\aaron\Sumo\2023-05-31-10-01-46\trips.trips.xml"/>
        <additional-files value="C:\Users\aaron\Sumo\2023-05-31-10-01-46\osm_stops.add.xml"/>
    </input>

    <output>
        <vehroute-output value="C:\Users\aaron\Sumo\2023-05-31-10-01-46\vehroutes.xml"/>
        <stop-output value="C:\Users\aaron\Sumo\2023-05-31-10-01-46\stopinfos.xml"/>
    </output>

    <time>
        <begin value="0.0"/>
    </time>

    <processing>
        <ignore-route-errors value="true"/>
    </processing>

    <routing>
        <device.rerouting.adaptation-interval value="0"/>
    </routing>

    <report>
        <aggregate-warnings value="5"/>
        <error-log value="C:\Users\aaron\Sumo\2023-05-31-10-01-46\trips.trips.xml.errorlog"/>
        <no-step-log value="true"/>
    </report>

</configuration>
-->

<routes xmlns:xsi="http://www.w3.org/2001/XMLSchema-instance" xsi:noNamespaceSchemaLocation="http://sumo.dlr.de/xsd/routes_file.xsd">
    <vehicle id="0_bus_784:0" type="pt_bus" depart="0.00" departLane="0" arrival="42.00">
        <route edges="451734614#1"/>
        <stop busStop="6967843801" duration="30.00"/>
    </vehicle>

    <vehicle id="1_bus_8576:0" type="pt_bus" depart="3.00" departLane="0" arrival="42.00">
        <route edges="451737390"/>
        <stop busStop="2466650866" duration="30.00"/>
    </vehicle>

    <vehicle id="2_bus_783:0" type="pt_bus" depart="6.00" departLane="0" arrival="49.00">
        <route edges="543404810#0"/>
        <stop busStop="6967862419" duration="30.00"/>
    </vehicle>

    <vehicle id="80_bus_Light_Rail_Shuttle:_Falls_Road_to_Camden_Yards:0" type="pt_bus" depart="173.00" departLane="0" arrival="216.00">
        <route edges="501246618#1"/>
        <stop busStop="9784108977" duration="30.00"/>
    </vehicle>

    <vehicle id="79_bus_38:0" type="pt_bus" depart="167.00" departLane="0" arrival="225.00">
        <route edges="208502687"/>
        <stop busStop="9768396582" duration="30.00"/>
    </vehicle>

    <vehicle id="183_bus_53:2" type="pt_bus" depart="448.00" departLane="0" arrival="487.00">
        <route edges="279676296#1"/>
        <stop busStop="2055577697" duration="30.00"/>
    </vehicle>

    <vehicle id="190_bus_59:1" type="pt_bus" depart="470.00" departLane="0" arrival="514.00">
        <route edges="513573140"/>
        <stop busStop="6117447346" duration="30.00"/>
    </vehicle>

    <vehicle id="184_bus_53:3" type="pt_bus" depart="487.00" departLane="0" arrival="525.00">
        <route edges="279676296#1"/>
        <stop busStop="2055577697" duration="30.00"/>
    </vehicle>

    <vehicle id="203_bus_75:0" type="pt_bus" depart="515.00" departLane="0" arrival="559.00">
        <route edges="192254092"/>
        <stop busStop="2028132781" duration="30.00"/>
    </vehicle>

    <vehicle id="158_bus_LM:2" type="pt_bus" depart="378.00" departLane="0" arrival="564.00">
        <route edges="6015434#1 6015434#2 6015434#3 6015434#6 6015434#7 6015434#10 6015434#16 6015434#17 6015434#18 6015434#19 98110677#0 98110677#1 543399073 10426299 188165137 543392744 -543392743 998151688 998151686#0 998151686#1"/>
        <stop busStop="6978440844" duration="30.00"/>
    </vehicle>

    <vehicle id="207_bus_76:0" type="pt_bus" depart="517.00" departLane="0" arrival="570.00">
        <route edges="116534593#1"/>
        <stop busStop="49484584" duration="30.00"/>
    </vehicle>

    <vehicle id="214_bus_80:1" type="pt_bus" depart="534.00" departLane="0" arrival="609.00">
        <route edges="116534593#1"/>
        <stop busStop="49484584" duration="30.00"/>
    </vehicle>

    <vehicle id="149_bus_NV:0" type="pt_bus" depart="353.00" departLane="0" arrival="629.00">
        <route edges="451551741#1 194234266#0 194234266#1 194234266#2 194234266#3 502233202#1 502233200#1 451551762#0 451551762#1 124218819#0 194234254 124218813#0 124218813#1 1070968688 192458900 192460486 -543380339 -543380341 -543390273#0 -543390274 -543390277 -543390280 -543390279 -543392740 -543392743 998151688 998151686#0 998151686#1"/>
        <stop busStop="-6978440843" duration="30.00"/>
    </vehicle>

    <vehicle id="205_bus_75:2" type="pt_bus" depart="527.00" departLane="0" arrival="633.00">
        <route edges="192254092"/>
        <stop busStop="2028132781" duration="30.00"/>
    </vehicle>

    <vehicle id="150_bus_NV:1" type="pt_bus" depart="362.00" departLane="0" arrival="671.00">
        <route edges="451551741#1 194234266#0 194234266#1 194234266#2 194234266#3 502233202#1 502233200#1 451551762#0 451551762#1 124218819#0 194234254 124218813#0 124218813#1 1070968688 192458900 192460486 -543380339 -543380341 -543390273#0 -543390274 -543390277 -543390280 -543390279 -543392740 -543392743 998151688 998151686#0 998151686#1"/>
        <stop busStop="-6978440843" duration="30.00"/>
    </vehicle>

    <vehicle id="72_train_Penn:4" type="pt_train" depart="159.00" departLane="0" arrival="684.00">
        <route edges="1025697176#1 793291455 169849485 793317799 69545489 -99276402 -793317797 -99276394 99276393 949376653 1025703954 1025703952 793317792 1025703945 72838190 953001138 1025705373 1025705368 1025705365"/>
        <stop busStop="1148084160" duration="30.00"/>
    </vehicle>

    <vehicle id="234_bus_63:1" type="pt_bus" depart="583.00" departLane="2" arrival="745.00">
        <route edges="197879512#1 424996475 424996473 197879528 548449170 424996480#0 424996480#1 455286043 5319448#0 5319448#1 548217620#0 548217620#1 548217607#0 548217607#1 548217613#0 548217613#1 130676654#0 130676654#1 130676654#2"/>
        <stop busStop="6117447353" duration="30.00"/>
    </vehicle>

    <vehicle id="159_bus_LM:3" type="pt_bus" depart="381.00" departLane="1" arrival="771.00">
        <route edges="544617708#0 544617708#2 544617708#3 544617708#4 544617708#7 544617708#8 544617708#9 424991392#0 424991394#1 424991394#2 424991394#3 424991394#4 424991394#5 544608527 943840867#0 513598099#1 70803676#0 197950021#1 197950021#2 513571899 1067586799 513571657#0 513571657#1 513571253#0 513571253#1 192460496#1 197950027 194234254 124218813#0 124218813#1 1070968688 192458900 192460486 -543380339 -543380341 -543390273#0 -543390274 -543390277 -543390280 -543390279 -543392740 -543392743 998151688 998151686#0 998151686#1"/>
        <stop busStop="-6978440843" duration="30.00"/>
    </vehicle>

    <vehicle id="115_light_rail_LR:1" type="pt_light_rail" depart="273.00" departLane="0" arrival="772.00">
        <route edges="71214999#3 201855693#1 201855693#2 201855693#3 201855693#4 201855693#5 201855693#6 201855693#7 201855693#8 201855693#9 201855693#10 201855693#11 201855693#12 201855693#13 201855693#14 201855693#15 201855693#16 201855693#17 201855693#18 201855693#19 201855693#20 201855693#21 201855693#22 201855693#23 201855693#24 201855693#25 201855693#26 201855693#27 201855693#28 201855693#29 201855693#30 201855693#31 201855693#32 201855693#33 201855693#34 201855693#35 201855693#36 201855693#37 201855693#38 201855693#39 201855693#40 201855693#41 201855693#42 201855693#43 201855693#44 201855693#45 201855693#46 201855693#47 201855693#48 201855693#49 201855693#50 201855693#51 201855693#52 201855693#53 201855693#54 201855693#55 201855693#56 201855693#57 201855693#58 201855693#59 201855693#60 70856122 70856126"/>
        <stop busStop="845911023" duration="30.00"/>
        <stop busStop="845911431" duration="30.00"/>
        <stop busStop="845911382" duration="30.00"/>
        <stop busStop="845371928" duration="30.00"/>
        <stop busStop="845372077" duration="30.00"/>
        <stop busStop="845371957" duration="30.00"/>
        <stop busStop="844812026" duration="30.00"/>
        <stop busStop="1148313194" duration="30.00"/>
    </vehicle>

    <vehicle id="102_bus_52:0" type="pt_bus" depart="251.00" departLane="0" arrival="773.00">
        <route edges="-192311460#0 -6010143#8 -6010143#7 -6010143#6 -91651546#0 6011985#2 -6013953#6 -6008691#1 -6008691#0 -6017469#1 -6017469#0 -431800023#1 49667508#20 49667508#21 49667508#22 49667508#23 424994494#0 424994494#1 424994494#3 424994494#4 424994494#6 424994494#7 424994494#8 424994494#9 424994494#10 424994494#11 424994494#12 522361563#0 522361563#3 522361563#5 522361563#6 522361563#8 522361563#9 965606757#0 965606757#1 965606757#2 965606757#3 965606757#4 965606756#2 965606749#0 965606749#1 125266906#1 125266906#2 125266906#3 125266906#5 546440244 546440246#1 546440246#3 546440246#4 546440246#5 546440246#7 546440246#8 526709478 522341649#0 522341649#1 522341649#2 522341649#3 974654198#0 974654198#1 947743441#0 947743441#1 947743441#2 947743441#3 947743441#4 522338959#1 522338959#2 522338959#3 522338959#4 1008578570#0 1008578570#2 1008578570#3 974654199 546440241#0 -546440239#2 -546440239#1 -546440239#0 546440238 -424993741#10 -424993741#4 -424993741#3 -424993741#2 -424993741#1 -947743450 -424993739 -424993738#1 -424993737#0 -546440228#2 -546440228#1 -948670887#1 -948670887#0 -132381968#4 -132381968#3 -132381968#2 -132381968#1 -132381968#0"/>
        <stop busStop="6125897445" duration="30.00"/>
    </vehicle>

    <vehicle id="193_bus_67:0" type="pt_bus" depart="484.00" departLane="0" arrival="776.00">
        <route edges="-201637236#0 6006381#1 192463113#1 192463113#2 98289551#1 98106800#1 424998855#1 98289628#1 98166085 -98106788#1 -116534597#0 111081883#1 98289643#1 98289643#2 116534593#1"/>
        <stop busStop="4485533501" duration="30.00"/>
        <stop busStop="49484584" duration="30.00"/>
    </vehicle>

    <vehicle id="130_bus_83:1" type="pt_bus" depart="321.00" departLane="0" arrival="796.00">
        <route edges="-949869767#11 -949869767#10 -949869767#8 -949869767#7 -949869767#6 -949869767#5 -949869767#4 -949869767#3 -949869767#1 -949869767#0 -950977976#2 -950977976#1 -950977976#0 -128117919#2 -128117919#1 -1132441135#3 -1132441135#1 -799547948#17 -799547948#14 -799547948#13 -799547948#12 -799547948#11 -799547948#10 -799547948#8 -799547948#7 -799547948#6 -799547948#5 -799547948#3 -799547948#2 -799547948#1 -799547948#0 -949869768#1 -451498897#2 -451498897#1 -451498897#0 -451498947#5 -451498947#4 -451498947#3 -451498947#2 -451498947#1 -451498947#0 -47990473#1 -47990473#0 6005106#0 6005106#2 6005107#0 6005107#1 6005107#2 543333889 543333893 424995911 424995914 451499030 501840785#0 501840785#1 47990465 546215707 425185519#1 128117929 543337926#0 543337926#1 124218792#0 124218792#1 194234266#0 194234266#1 194234266#2 194234266#3"/>
        <stop busStop="-6981779108" duration="30.00"/>
    </vehicle>

    <vehicle id="156_bus_LM:0" type="pt_bus" depart="371.00" departLane="0" arrival="809.00">
        <route edges="544617708#0 544617708#2 544617708#3 544617708#4 544617708#7 544617708#8 544617708#9 424991392#0 424991394#1 424991394#2 424991394#3 424991394#4 424991394#5 544608527 943840867#0 513598099#1 70803676#0 197950021#1 197950021#2 513571899 1067586799 513571657#0 513571657#1 513571253#0 513571253#1 192460496#1 197950027 194234254 124218813#0 124218813#1 1070968688 192458900 192460486 -543380339 -543380341 -543390273#0 -543390274 -543390277 -543390280 -543390279 -543392740 -543392743 998151688 998151686#0 998151686#1"/>
        <stop busStop="-6978440843" duration="30.00"/>
    </vehicle>

    <vehicle id="129_bus_83:0" type="pt_bus" depart="318.00" departLane="0" arrival="834.00">
        <route edges="194234266#3 502233202#1 502233200#1 451551762#0 451551762#1 194234269#0 197879530 424995902 6017343#1 6017343#2 6017343#3 205787106 543333900#0 543333900#1 543333900#2 543333900#3 47990481#0 47990481#1 543333875 543333862 92171594#2 542334293 222955048 47990473#0 47990473#1 451498947#0 451498947#1 451498947#2 451498947#3 451498947#4 451498947#5 451498897#0 451498897#1 451498897#2 949869768#1 799547948#0 799547948#1 799547948#2 799547948#3 799547948#5 799547948#6 799547948#7 799547948#8 799547948#10 799547948#11 799547948#12 799547948#13 799547948#14 799547948#17 1132441135#1 1132441135#3 128117919#1 128117919#2 950977976#0 950977976#1 950977976#2 949869767#0 949869767#1 949869767#3 949869767#4 949869767#5 949869767#6 949869767#7 949869767#8 949869767#10 949869767#11"/>
        <stop busStop="6981779109" duration="30.00"/>
    </vehicle>

    <vehicle id="201_bus_77:0" type="pt_bus" depart="509.00" departLane="0" arrival="845.00">
        <route edges="502201044#2 502201041#2 502201039 498401121#0 498401121#1 502201040#0 502201040#1 949420314#0 949420314#1 47986415#1 542165405#0 542165405#1 542165407#0 542165407#1 937467277#0 937467277#1 832057595 937467276 832057146 832057152 542170732 542170730#0 542170730#1 542170736#1 542170736#2 542170736#3 542170736#4 84601642#0 84601642#1 84601642#2 84601642#3 765355176 194234248 49658655 194234249 920700244 542173870 542173871#0 542173871#1 542173873#0 542173873#1"/>
        <stop busStop="4927577794" duration="30.00"/>
    </vehicle>

    <vehicle id="10_train_Acela:2" type="pt_train" depart="81.00" departLane="0" arrival="865.00">
        <route edges="-499202507 -71867189 -99359285 -793291461 -99359291 -99359159 -72657499 -72657496 -99276403 -169849512 -99276397 -793291457 99276409 760449796 1025697176#1 793291455 169849485 793317799 69545489 -99276402 -793317797 -99276394 99276393 949376653 1025703954 1025703952 793317792 1025703945 72838190 953001138 1025705373 1025705368 1025705365"/>
        <stop busStop="1148313142" duration="30.00"/>
    </vehicle>

    <vehicle id="235_bus_63:2" type="pt_bus" depart="590.00" departLane="0" arrival="879.00">
        <route edges="195248654#0 195248654#1 195248654#2 548217588 548217595 548217601#0 548217601#1 548217601#2 548217601#3 548217601#5 455286042 192573429 935719413 49667356 548247385#0 548247385#1 548247387 202622184 49652639#0 197879505 424994503 197879510#0 197879503#0 197879503#1 1002562704#1"/>
        <stop busStop="6117447359" duration="30.00"/>
    </vehicle>

    <vehicle id="5_train_Vermonter:0" type="pt_train" depart="15.00" departLane="0" arrival="885.00">
        <route edges="-499202507 -71867189 -99359285 -793291461 -99359291 -99359159 -72657499 -72657496 -99276403 -169849512 -99276397 -793291457 99276409 760449796 1025697176#1 793291455 169849485 793317799 69545489 -99276402 -793317797 -99276394 99276393 949376653 1025703954 1025703952 793317792 1025703945 72838190 953001138 1025705373 1025705368 1025705365"/>
        <stop busStop="1148313142" duration="30.00"/>
    </vehicle>

    <vehicle id="202_bus_77:1" type="pt_bus" depart="511.00" departLane="0" arrival="906.00">
        <route edges="542293699#0 542293699#1 542293699#2 542293699#3 949408227 920700242 850402870 49658637 70649065 501221756 470341293 1068974913 953001144 765355177 70649066#0 70649066#1 426811220 6008568#1 883257103#0 883257103#3 883257103#4 239839248#0 239839248#1 239839248#2 239839248#3 239839248#4 239839248#5 832057151 1048080337 832057150 832057147 832057149 832057148#1 832057148#2 832057594#0 832057594#1 832057594#2 832057594#3 542170728#0 542170728#1 542170728#2 542170728#3 6010825#0 6010825#1 498401210#1 502201039 498401121#0 498401121#1 502201044#0 502201044#2"/>
        <stop busStop="4927577794" duration="30.00"/>
    </vehicle>

    <vehicle id="7_train_Vermonter:2" type="pt_train" depart="48.00" departLane="0" arrival="924.00">
        <route edges="-499202507 -71867189 -99359285 -793291461 -99359291 -99359159 -72657499 -72657496 -99276403 -169849512 -99276397 -793291457 99276409 760449796 1025697176#1 793291455 169849485 793317799 69545489 -99276402 -793317797 -99276394 99276393 949376653 1025703954 1025703952 793317792 1025703945 72838190 953001138 1025705373 1025705368 1025705365"/>
        <stop busStop="1148313142" duration="30.00"/>
    </vehicle>

    <vehicle id="73_train_Penn:5" type="pt_train" depart="215.00" departLane="0" arrival="925.00">
        <route edges="99251616#0 99251616#1 1025705376 1025705372 99251609 337489065 1025703953 54240375 1025697173 793317797 99276402 -6019618#0 -704524566 793317798 704524567 169849477"/>
        <stop busStop="1148081604" duration="30.00"/>
    </vehicle>

    <vehicle id="204_bus_75:1" type="pt_bus" depart="521.00" departLane="0" arrival="947.00">
        <route edges="192254092 192254091#0 192254091#1 6023507#0 6023507#1 6023507#2 425002422#0 98040495#1 98040495#2 98040495#3 98040495#4 188783434#1 188783434#2 11201451#0 11201451#1 11201451#2 11201451#3 1083996776 455272878#0 1164453170 11570423 77327643 305419555 870821352#0 870821352#1 870821352#2 870821352#3 1023310495 198870323 501480216 1122482606#0 1122482606#1 1122482606#2 1122482607 6004798 24647371 24648291"/>
        <stop busStop="2028132781" duration="30.00"/>
    </vehicle>

    <vehicle id="194_bus_67:1" type="pt_bus" depart="484.00" departLane="1" arrival="956.00">
        <route edges="70513730 546376207#1 546376206#1 1055904076 -188165139#1 -188165139#0 -947732345#1 -947732345#0 -47987687#10 -47987687#9 -47987687#8 -47987687#7 -47987687#6 -47987687#5 -47987687#4 -47987687#3 -47987687#2 -422216750#3 -422216750#1 98166058#16 98166058#17 98166058#18 98166058#19 188969445#0 -546224033 -47988301#2 -47988301#1 46582175#1 46582175#2 46582175#3 46582175#4 46582175#5 107263469#1 107263469#2 107263469#3 6008581#1 192572987#1 22775635#1 22775635#2 98144196#1 98144196#2 98144196#3 98144196#4 98144335#1 195773995#1 546911819 98166085 98214823#1 546911818#1 69530870#1 69530870#2 98289624#1 98289538 1077650137#1 -201637236#0"/>
        <stop busStop="1990938847" duration="30.00"/>
    </vehicle>

    <vehicle id="209_bus_78:0" type="pt_bus" depart="523.00" departLane="0" arrival="961.00">
        <route edges="502201044#2 502201041#2 502201039 498401121#0 498401121#1 502201040#0 502201040#1 949420314#0 949420314#1 47986415#1 542165405#0 542165405#1 542165407#0 542165407#1 937467277#0 937467277#1 832057595 937467276 832057146 832057152 542170732 542170730#0 542170730#1 542170736#1 542170736#2 542170736#3 542170736#4 84601642#0 84601642#1 84601642#2 84601642#3 765355176 194234248 49658655 -47986461#2 -47986461#1 -47986461#0 47986437 120459173 -926234662 6006750#0 6006750#1 6006750#2 6006750#3 6006750#5 6006750#6 6006751#0 6006751#1 6006751#2"/>
        <stop busStop="4927577794" duration="30.00"/>
    </vehicle>

    <vehicle id="210_bus_78:1" type="pt_bus" depart="525.00" departLane="0" arrival="969.00">
        <route edges="6018819 6018982#0 6018982#1 6015569#0 6005754#0 6005754#1 6005754#2 6005754#3 6009882#6 6009882#7 949416429 926234662 425004877 425004876 6001327 501221756 470341293 1068974913 953001144 765355177 70649066#0 70649066#1 426811220 6008568#1 883257103#0 883257103#3 883257103#4 239839248#0 239839248#1 239839248#2 239839248#3 239839248#4 239839248#5 832057151 1048080337 832057150 832057147 832057149 832057148#1 832057148#2 832057594#0 832057594#1 832057594#2 832057594#3 542170728#0 542170728#1 542170728#2 542170728#3 6010825#0 6010825#1 498401210#1 502201039 498401121#0 498401121#1 502201044#0 502201044#2"/>
        <stop busStop="4927577794" duration="30.00"/>
    </vehicle>

    <vehicle id="174_bus_52:1" type="pt_bus" depart="418.00" departLane="0" arrival="970.00">
        <route edges="-192311460#0 6010143#9 192311460#1 192311461#1 192311459#2 192311459#3 192311459#4 192311459#5 192311459#6 192311459#7 192311459#9 192311459#10 -548258410#4 -548258410#3 -548258410#2 -548258410#1 -548258410#0 -548258409 -6021203#12 -6021203#11 -6021203#10 -6021203#9 -6021203#8 -6021203#5 -6021203#4 -6021203#3 -6021203#2 -6021203#1 -6021203#0 965606757#0 965606757#1 965606757#2 965606757#3 965606757#4 965606756#2 965606749#0 965606749#1 125266906#1 125266906#2 125266906#3 125266906#5 546440244 546440246#1 546440246#3 546440246#4 546440246#5 546440246#7 546440246#8 526709478 522341649#0 522341649#1 522341649#2 522341649#3 974654198#0 974654198#1 947743441#0 947743441#1 947743441#2 947743441#3 947743441#4 522338959#1 522338959#2 522338959#3 522338959#4 1008578570#0 1008578570#2 1008578570#3 974654199 546440241#0 -546440239#2 -546440239#1 -546440239#0 546440238 -424993741#10 -424993741#4 -424993741#3 -424993741#2 -424993741#1 -947743450 -424993739 -424993738#1 -424993737#0 -546440228#2 -546440228#1 -948670887#1 -948670887#0 -132381968#4 -132381968#3 -132381968#2 -132381968#1 -132381968#0"/>
        <stop busStop="6125894136" duration="30.00"/>
    </vehicle>

    <vehicle id="216_bus_82:1" type="pt_bus" depart="538.00" departLane="0" arrival="971.00">
        <route edges="451499032 -113767057 -501840374#0 -451498930#4 -451498930#3 -451498930#2 947541481#3 950977966#1 947541480#1 947541480#3 188164083#0 188164083#1 188164083#2 188164083#5 188164083#6 188164083#7 188164083#8 188164083#9 188164083#10 425003415#1 425003414#0 425003414#2 425003411#0 425003411#1 425003411#2 425003412#1 10426301#2 10426301#3 10426301#5 10426301#6 10426301#7 10426301#8 10426301#9 425003416#1 425003416#2 425003416#3 425003417#0 425003417#1 425003418#0 425003418#1 237887538#5 204145051#0 204145051#1 204145051#2 204145051#3 204145051#4 204145051#5 204145051#6 204145051#7"/>
        <stop busStop="6981792421" duration="30.00"/>
    </vehicle>

    <vehicle id="8_train_Acela:0" type="pt_train" depart="50.00" departLane="0" arrival="973.00">
        <route edges="1025705363 1025705366 1025705375 1025705371 72838194 337489065 1025703953 54240375 1025697173 793317797 99276402 -6019618#0 -704524566 793317798 659227764 793291454 793291453 69545483#0 69545483#1 659227765 793291457 169849513 99276390 704572068 72656655 72656658 72656652 793291459 99359306 793291463 99359177 1025679168 793291466#0 793291466#1 1025672455 169849507"/>
        <stop busStop="1148313180" duration="30.00"/>
    </vehicle>

    <vehicle id="215_bus_82:0" type="pt_bus" depart="535.00" departLane="0" arrival="979.00">
        <route edges="-204145051#7 -204145051#6 -204145051#5 -204145051#4 -204145051#3 -204145051#2 -204145051#1 -204145051#0 -237887538#5 -425003418#1 -425003418#0 -425003417#1 -425003417#0 -425003416#3 -425003416#2 -425003416#1 -10426301#9 -10426301#8 -10426301#7 -10426301#6 -10426301#5 -10426301#3 -10426301#2 -425003412#1 -1132441135#3 -1132441135#1 -799547948#17 -799547948#14 -799547948#13 -799547948#12 -799547948#11 -799547948#10 -799547948#8 -799547948#7 -799547948#6 -799547948#5 -799547948#3 -799547948#2 -799547948#1 -799547948#0 -949869768#1 -451498897#2 -451498897#1 -451498897#0 451498948#0 451498948#1 451498948#2 451498930#2 451498930#3 451498930#4 501840374#0 113767057 501840373 451499032"/>
        <stop busStop="-6981792422" duration="30.00"/>
    </vehicle>

    <vehicle id="11_train_Acela:3" type="pt_train" depart="114.00" departLane="0" arrival="991.00">
        <route edges="-499202507 -71867189 -99359285 -793291461 -99359291 -99359159 -72657499 -72657496 -99276403 -169849512 -99276397 -793291457 99276409 760449796 1025697176#1 793291455 169849485 793317799 69545489 -99276402 -793317797 -99276394 99276393 949376653 1025703954 1025703952 793317792 1025703945 72838190 953001138 1025705373 1025705368 1025705365"/>
        <stop busStop="1148313142" duration="30.00"/>
    </vehicle>

    <vehicle id="189_bus_59:0" type="pt_bus" depart="470.00" departLane="0" arrival="1012.00">
        <route edges="-850084058 -336425501#1 -336425501#0 336425500 501281908 1087376015 -1014015176#3 -1014015176#2 -1014015176#1 -1014015176#0 1014015176#0 1014015176#1 1014015176#2 1014015176#3 6013480 336425501#0 336425501#1 850084058 425005377 -198707925#1 -198707925#0 -198707926#3 -198707926#2 -198707926#1 -198707926#0 116069217#0 116069217#1 116069217#2 1053844988 1053844988-AddedOffRampEdge 448327248 448327245 51535549 985416623 51535548 49655136-AddedOnRampEdge 49655136 5996112 49650238#1 547776306 88778585 202622181#1 202622181#3 202622181#4 197879508 197879504#0 197879504#2 197879504#3 197879512#1 424996475 424996473 197879528 548449170 424996480#0 424996480#1 455286043 455286044 513571024 548247383 98289544 548217624 548217656 513573130"/>
        <stop busStop="6117447345" duration="30.00"/>
    </vehicle>

    <vehicle id="195_bus_69:0" type="pt_bus" depart="485.00" departLane="0" arrival="1019.00">
        <route edges="425002438 130576350#1 425002437#0 425002437#1 188783435#0 188783435#1 943791447 425002426#0 188783439#0 188783439#1 188783439#2 192254092 192254091#0 192254091#1 6023507#0 6023507#1 6023507#2 425002422#0 98040495#1 98040495#2 98040495#3 98040495#4 188783434#1 188783434#2 11201451#0 11201451#1 11201451#2 11201451#3 1083996776 455272878#0 1164453170 11570423 77327643 305419555 870821352#0 870821352#1 870821352#2 870821352#3 1023310495 198870323 501480216 1122482606#0 1122482606#1 1122482606#2 1122482607 6004798 24647371 24648291"/>
        <stop busStop="2028132781" duration="30.00"/>
    </vehicle>

    <vehicle id="196_bus_70:0" type="pt_bus" depart="497.00" departLane="0" arrival="1019.00">
        <route edges="425002438 130576350#1 425002437#0 425002437#1 188783435#0 188783435#1 943791447 425002426#0 188783439#0 188783439#1 188783439#2 192254092 192254091#0 192254091#1 6023507#0 6023507#1 6023507#2 425002422#0 98040495#1 98040495#2 98040495#3 98040495#4 188783434#1 188783434#2 11201451#0 11201451#1 11201451#2 11201451#3 1083996776 455272878#0 1164453170 11570423 77327643 305419555 870821352#0 870821352#1 870821352#2 870821352#3 1023310495 198870323 501480216 1122482606#0 1122482606#1 1122482606#2 1122482607 6004798 24647371 24648291"/>
        <stop busStop="2028132781" duration="30.00"/>
    </vehicle>

    <vehicle id="199_bus_73:0" type="pt_bus" depart="505.00" departLane="0" arrival="1021.00">
        <route edges="279676296#1 195059446#1 335286762#0 335286762#2 72832547 197613662#0 197613662#1 -98144344#5 -98144344#4 -98144344#3 -98144344#2 -98144344#1 -98144344#0 -192463127#0 -192463119#5 -192463119#4 -192463119#3 -192463119#2 -195640780#6 -195640780#5 -195640780#1 -195640780#0 580849360 975996345#0 192466986#1 192466986#2 542149897#0 6023719#1 6023719#2 198167865#1 944178727#0 944178727#1 198167866#0 198167866#1 198167866#2 198167866#3 949155899#0 949155899#1 949155899#2 6023507#0 6023507#1 6023507#2 425002422#0 98040495#1 98040495#2 98040495#3 98040495#4 188783434#1 188783434#2 11201451#0 11201451#1 11201451#2 11201451#3 1083996776 455272878#0 1164453170 11570423 77327643 305419555 870821352#0 870821352#1 870821352#2 870821352#3 1023310495 198870323 501480216 1122482606#0 1122482606#1 1122482606#2 1122482607 6004798 24647371 24648291"/>
        <stop busStop="2055577697" duration="30.00"/>
    </vehicle>

    <vehicle id="12_train_Acela:4" type="pt_train" depart="147.00" departLane="0" arrival="1024.00">
        <route edges="-499202507 -71867189 -99359285 -793291461 -99359291 -99359159 -72657499 -72657496 -99276403 -169849512 -99276397 -793291457 99276409 760449796 1025697176#1 793291455 169849485 793317799 69545489 -99276402 -793317797 -99276394 99276393 949376653 1025703954 1025703952 793317792 1025703945 72838190 953001138 1025705373 1025705368 1025705365"/>
        <stop busStop="1148313142" duration="30.00"/>
    </vehicle>

    <vehicle id="217_bus_85:0" type="pt_bus" depart="543.00" departLane="0" arrival="1058.00">
        <route edges="-968721073#7 -968721073#6 -968721073#5 -968721073#4 -968721073#2 968721072 47990482#1 47990482#2 47990482#3 47990482#4 47990482#7 47990482#10 47990482#11 47990482#14 47990482#17 47990482#18 983724854#0 968721061#1 968721061#2 968721061#3 968721061#4 968721061#5 968721061#6 968721061#7 968721061#8 968721061#11 968721061#12 968721061#13 968721061#14 968721061#17 968721061#18 968721061#21 968721061#23 451498929#1 451498929#2 542341655#1 542341655#2 971401572#2 47990472 6005107#0 6005107#1 6005107#2 543333889 543333893 424995911 424995914 451499030 501840785#0 501840785#1 47990465 546215707 425185519#1 128117929 543337926#0 543337926#1 1070968688 192458900 192460486 -543380339 -543380341 -543390273#0 -543390274 -543390277 -543390280 -543390279 -543392740 -543392743 998151688 998151686#0 998151686#1"/>
        <stop busStop="-6981793083" duration="30.00"/>
    </vehicle>

    <vehicle id="15_train_Acela:7" type="pt_train" depart="149.00" departLane="0" arrival="1060.00">
        <route edges="1025705363 1025705366 1025705375 1025705371 72838194 337489065 1025703953 54240375 1025697173 793317797 99276402 -6019618#0 -704524566 793317798 659227764 793291454 793291453 69545483#0 69545483#1 659227765 793291457 169849513 99276390 704572068 72656655 72656658 72656652 793291459 99359306 793291463 99359177 1025679168 793291466#0 793291466#1 1025672455 169849507"/>
    </vehicle>

    <vehicle id="97_bus_95:0" type="pt_bus" depart="228.00" departLane="1" arrival="1062.00">